2061
Lattice="27.628 0.0 0.0 0.0 27.628 0.0 0.0 0.0 27.628" Properties=species:S:1:pos:R:3:forces:R:3 energy=0.0 pbc="T T T"
O       14.07000000      14.14000000      13.53000000       0.00000000       0.00000000       0.00000000
H       14.53200000      13.51800000      14.16200000       0.00000000       0.00000000       0.00000000
H       13.14200000      14.32000000      13.85800000       0.00000000       0.00000000       0.00000000
O        2.29900000       6.35000000       1.13000000       0.00000000       0.00000000       0.00000000
H        1.38600000       6.24300000       1.52300000       0.00000000       0.00000000       0.00000000
H        2.33500000       5.89200000       0.24100000       0.00000000       0.00000000       0.00000000
O        2.13000000       2.81000000       9.96000000       0.00000000       0.00000000       0.00000000
H        2.59800000       2.59100000      10.81600000       0.00000000       0.00000000       0.00000000
H        1.36200000       2.18200000       9.83000000       0.00000000       0.00000000       0.00000000
O       27.73900000       3.72000000       6.46000000       0.00000000       0.00000000       0.00000000
H       26.85600000       4.07100000       6.77000000       0.00000000       0.00000000       0.00000000
H       27.59300000       2.96800000       5.81800000       0.00000000       0.00000000       0.00000000
O        5.68000000      12.75000000      11.67000000       0.00000000       0.00000000       0.00000000
H        4.76100000      12.69600000      11.27900000       0.00000000       0.00000000       0.00000000
H        5.81400000      13.65100000      12.08200000       0.00000000       0.00000000       0.00000000
O       15.53100000      15.11000000       7.03000000       0.00000000       0.00000000       0.00000000
H       15.00500000      14.97000000       7.86900000       0.00000000       0.00000000       0.00000000
H       14.90400000      15.22000000       6.25900000       0.00000000       0.00000000       0.00000000
O       11.33000000       7.03000000       7.13000000       0.00000000       0.00000000       0.00000000
H       11.90000000       7.82100000       6.91000000       0.00000000       0.00000000       0.00000000
H       10.76300000       7.23900000       7.92700000       0.00000000       0.00000000       0.00000000
O       17.56000000       6.07000000       2.30000000       0.00000000       0.00000000       0.00000000
H       17.41900000       5.91800000       1.32200000       0.00000000       0.00000000       0.00000000
H       17.25800000       5.26500000       2.81000000       0.00000000       0.00000000       0.00000000
O        7.67000000      11.45100000      10.27000000       0.00000000       0.00000000       0.00000000
H        6.89000000      11.65600000      10.86100000       0.00000000       0.00000000       0.00000000
H        8.00200000      12.29500000       9.85000000       0.00000000       0.00000000       0.00000000
O        8.51000000       7.96000000      18.21000000       0.00000000       0.00000000       0.00000000
H        8.45900000       8.69900000      18.88200000       0.00000000       0.00000000       0.00000000
H        8.75100000       8.33900000      17.31600000       0.00000000       0.00000000       0.00000000
O        6.87000000      10.15000000       6.61000000       0.00000000       0.00000000       0.00000000
H        7.53000000       9.93000000       7.32800000       0.00000000       0.00000000       0.00000000
H        6.10400000      10.65700000       7.00600000       0.00000000       0.00000000       0.00000000
O        6.92000000      11.59000000      18.03000000       0.00000000       0.00000000       0.00000000
H        7.49300000      12.39000000      18.21100000       0.00000000       0.00000000       0.00000000
H        6.04000000      11.88800000      17.66000000       0.00000000       0.00000000       0.00000000
O        3.33000000      14.36000000      10.64000000       0.00000000       0.00000000       0.00000000
H        2.56300000      14.00300000      10.10700000       0.00000000       0.00000000       0.00000000
H        3.92700000      14.89900000      10.04600000       0.00000000       0.00000000       0.00000000
O        4.39000000       3.94000000      15.00000000       0.00000000       0.00000000       0.00000000
H        5.21300000       3.37300000      15.04000000       0.00000000       0.00000000       0.00000000
H        3.58000000       3.35400000      15.03000000       0.00000000       0.00000000       0.00000000
O       16.07000000       4.49000000       7.36000000       0.00000000       0.00000000       0.00000000
H       15.29800000       4.89200000       6.86900000       0.00000000       0.00000000       0.00000000
H       16.51000000       5.19100000       7.92100000       0.00000000       0.00000000       0.00000000
O        2.35000000      17.06900000       4.84000000       0.00000000       0.00000000       0.00000000
H        2.56300000      17.91500000       5.33000000       0.00000000       0.00000000       0.00000000
H        2.73300000      17.11300000       3.91700000       0.00000000       0.00000000       0.00000000
O       11.30000000      13.40900000      16.89100000       0.00000000       0.00000000       0.00000000
H       11.74900000      13.42400000      17.78400000       0.00000000       0.00000000       0.00000000
H       10.77200000      12.56600000      16.79700000       0.00000000       0.00000000       0.00000000
O        2.30100000      14.35000000       5.39000000       0.00000000       0.00000000       0.00000000
H        2.06800000      15.32300000       5.37200000       0.00000000       0.00000000       0.00000000
H        1.57500000      13.84200000       5.85300000       0.00000000       0.00000000       0.00000000
O        2.43000000      10.89900000       8.86000000       0.00000000       0.00000000       0.00000000
H        2.53000000      10.02500000       9.33600000       0.00000000       0.00000000       0.00000000
H        1.88700000      11.52400000       9.42200000       0.00000000       0.00000000       0.00000000
O        6.18100000      17.88000000      14.37000000       0.00000000       0.00000000       0.00000000
H        5.28400000      17.70300000      14.77500000       0.00000000       0.00000000       0.00000000
H        6.48500000      18.79800000      14.62200000       0.00000000       0.00000000       0.00000000
O        5.87000000       9.64000000       1.32000000       0.00000000       0.00000000       0.00000000
H        6.11000000      10.33700000       0.64400000       0.00000000       0.00000000       0.00000000
H        6.47300000       9.72200000       2.11300000       0.00000000       0.00000000       0.00000000
O       16.07000000       1.23900000      14.88000000       0.00000000       0.00000000       0.00000000
H       15.80900000       1.84300000      14.12600000       0.00000000       0.00000000       0.00000000
H       15.91700000       1.70700000      15.75000000       0.00000000       0.00000000       0.00000000
O        1.33000000       6.38000000       5.67000000       0.00000000       0.00000000       0.00000000
H        0.75600000       5.56600000       5.75200000       0.00000000       0.00000000       0.00000000
H        1.10800000       7.02100000       6.40400000       0.00000000       0.00000000       0.00000000
O       18.42000000      17.66000000       3.53000000       0.00000000       0.00000000       0.00000000
H       18.94500000      17.35700000       4.32600000       0.00000000       0.00000000       0.00000000
H       18.72700000      18.57100000       3.25600000       0.00000000       0.00000000       0.00000000
O        0.39000000      15.89000000       1.27000000       0.00000000       0.00000000       0.00000000
H        0.05300000      14.96300000       1.43700000       0.00000000       0.00000000       0.00000000
H       -0.04800000      16.52300000       1.90900000       0.00000000       0.00000000       0.00000000
O       16.90000000       9.22000000       6.20000000       0.00000000       0.00000000       0.00000000
H       17.84500000       8.89200000       6.20900000       0.00000000       0.00000000       0.00000000
H       16.76000000       9.81200000       5.40700000       0.00000000       0.00000000       0.00000000
O       16.45000000      11.06000000       4.33000000       0.00000000       0.00000000       0.00000000
H       17.28400000      11.16200000       3.78900000       0.00000000       0.00000000       0.00000000
H       16.51200000      11.63000000       5.14900000       0.00000000       0.00000000       0.00000000
O        1.16000000       7.42000000      15.99000000       0.00000000       0.00000000       0.00000000
H        2.08400000       7.34000000      16.36200000       0.00000000       0.00000000       0.00000000
H        0.99000000       8.36800000      15.72000000       0.00000000       0.00000000       0.00000000
O        6.12000000      13.69100000       7.28000000       0.00000000       0.00000000       0.00000000
H        5.63500000      12.82200000       7.38000000       0.00000000       0.00000000       0.00000000
H        5.90900000      14.09000000       6.38800000       0.00000000       0.00000000       0.00000000
O       12.73000000      12.02000000      14.40900000       0.00000000       0.00000000       0.00000000
H       13.20700000      11.52300000      13.68400000       0.00000000       0.00000000       0.00000000
H       13.36600000      12.21200000      15.15700000       0.00000000       0.00000000       0.00000000
O        8.28000000      -0.17900000       5.06000000       0.00000000       0.00000000       0.00000000
H        8.66300000       0.74400000       5.02000000       0.00000000       0.00000000       0.00000000
H        7.28200000      -0.12500000       5.09000000       0.00000000       0.00000000       0.00000000
O        1.97000000       9.75000000      12.59000000       0.00000000       0.00000000       0.00000000
H        2.85800000       9.29800000      12.51000000       0.00000000       0.00000000       0.00000000
H        1.24100000       9.07800000      12.46000000       0.00000000       0.00000000       0.00000000
O       15.33000000       9.91000000       1.91900000       0.00000000       0.00000000       0.00000000
H       14.58800000       9.25800000       2.07500000       0.00000000       0.00000000       0.00000000
H       15.70000000      10.21000000       2.79900000       0.00000000       0.00000000       0.00000000
O       11.83000000      17.94000000      16.15000000       0.00000000       0.00000000       0.00000000
H       12.10900000      18.55700000      15.41400000       0.00000000       0.00000000       0.00000000
H       11.97000000      16.99300000      15.86100000       0.00000000       0.00000000       0.00000000
O        3.23000000       2.53900000      18.00000000       0.00000000       0.00000000       0.00000000
H        3.90800000       3.26600000      18.11300000       0.00000000       0.00000000       0.00000000
H        2.34400000       2.85400000      18.34100000       0.00000000       0.00000000       0.00000000
O       14.64000000      14.18000000       9.54000000       0.00000000       0.00000000       0.00000000
H       14.00900000      14.27800000      10.31000000       0.00000000       0.00000000       0.00000000
H       14.52800000      13.27500000       9.13000000       0.00000000       0.00000000       0.00000000
O       16.64000000      17.18000000       5.74000000       0.00000000       0.00000000       0.00000000
H       16.28900000      16.94000000       4.83500000       0.00000000       0.00000000       0.00000000
H       16.45100000      16.43400000       6.37900000       0.00000000       0.00000000       0.00000000
O        5.96000000       7.28000000       2.66000000       0.00000000       0.00000000       0.00000000
H        6.18100000       8.01300000       2.01700000       0.00000000       0.00000000       0.00000000
H        5.22300000       7.57900000       3.26700000       0.00000000       0.00000000       0.00000000
O       12.82000000       3.44000000       9.38000000       0.00000000       0.00000000       0.00000000
H       11.92400000       3.00100000       9.31100000       0.00000000       0.00000000       0.00000000
H       13.39800000       2.92000000      10.00900000       0.00000000       0.00000000       0.00000000
O       15.78000000      16.64000000       3.07000000       0.00000000       0.00000000       0.00000000
H       16.68400000      17.06700000       3.10100000       0.00000000       0.00000000       0.00000000
H       15.56800000      16.37900000       2.12800000       0.00000000       0.00000000       0.00000000
O        8.03900000       6.06900000      14.61000000       0.00000000       0.00000000       0.00000000
H        7.64400000       5.99500000      15.52600000       0.00000000       0.00000000       0.00000000
H        7.52800000       5.48600000      13.97800000       0.00000000       0.00000000       0.00000000
O       13.92000000       4.68000000      16.76000000       0.00000000       0.00000000       0.00000000
H       13.78100000       5.15000000      17.63200000       0.00000000       0.00000000       0.00000000
H       14.71000000       4.07100000      16.83100000       0.00000000       0.00000000       0.00000000
O        9.67000000       8.90000000      15.75000000       0.00000000       0.00000000       0.00000000
H       10.20200000       8.10800000      15.45100000       0.00000000       0.00000000       0.00000000
H        9.16000000       9.27100000      14.97300000       0.00000000       0.00000000       0.00000000
O        9.91900000       4.09000000      12.42000000       0.00000000       0.00000000       0.00000000
H        9.14300000       4.44100000      12.94200000       0.00000000       0.00000000       0.00000000
H        9.58500000       3.60200000      11.61300000       0.00000000       0.00000000       0.00000000
O       10.43000000       7.01000000       4.29000000       0.00000000       0.00000000       0.00000000
H       10.64800000       6.96000000       5.26500000       0.00000000       0.00000000       0.00000000
H        9.58900000       6.49900000       4.11000000       0.00000000       0.00000000       0.00000000
O        0.91900000       8.38000000       7.40900000       0.00000000       0.00000000       0.00000000
H        1.66500000       7.94900000       7.91800000       0.00000000       0.00000000       0.00000000
H        0.42400000       9.00700000       8.01100000       0.00000000       0.00000000       0.00000000
O        1.34000000      18.17000000      15.78000000       0.00000000       0.00000000       0.00000000
H        1.19000000      18.04000000      16.76000000       0.00000000       0.00000000       0.00000000
H        0.50500000      18.52200000      15.35800000       0.00000000       0.00000000       0.00000000
O        8.75000000       3.51000000       1.98100000       0.00000000       0.00000000       0.00000000
H        9.27300000       4.10000000       1.36500000       0.00000000       0.00000000       0.00000000
H        8.78200000       2.56800000       1.64600000       0.00000000       0.00000000       0.00000000
O       17.15000000       5.83000000      18.30900000       0.00000000       0.00000000       0.00000000
H       16.90200000       6.72400000      17.93600000       0.00000000       0.00000000       0.00000000
H       17.23100000       5.16900000      17.56400000       0.00000000       0.00000000       0.00000000
O       13.66000000      11.45000000       5.44000000       0.00000000       0.00000000       0.00000000
H       14.48000000      11.17000000       4.94000000       0.00000000       0.00000000       0.00000000
H       13.13900000      12.10100000       4.88900000       0.00000000       0.00000000       0.00000000
O        5.46000000       2.04000000       8.86000000       0.00000000       0.00000000       0.00000000
H        5.42000000       2.04000000       9.85900000       0.00000000       0.00000000       0.00000000
H        5.52000000       2.98200000       8.52900000       0.00000000       0.00000000       0.00000000
O       10.09000000      14.54000000       4.76000000       0.00000000       0.00000000       0.00000000
H        9.62000000      15.26000000       4.24900000       0.00000000       0.00000000       0.00000000
H       10.04000000      14.73900000       5.73900000       0.00000000       0.00000000       0.00000000
O        3.52000000      18.02000000       8.54000000       0.00000000       0.00000000       0.00000000
H        4.00400000      17.14800000       8.61000000       0.00000000       0.00000000       0.00000000
H        4.18200000      18.76900000       8.52000000       0.00000000       0.00000000       0.00000000
O       17.95000000      10.67000000       8.70000000       0.00000000       0.00000000       0.00000000
H       17.32600000      10.49900000       7.93700000       0.00000000       0.00000000       0.00000000
H       17.42800000      10.73000000       9.55100000       0.00000000       0.00000000       0.00000000
O       12.28000000      15.46000000      15.04000000       0.00000000       0.00000000       0.00000000
H       12.26000000      14.72900000      15.72200000       0.00000000       0.00000000       0.00000000
H       11.63600000      15.24900000      14.30500000       0.00000000       0.00000000       0.00000000
O        3.16000000       9.50000000       2.30000000       0.00000000       0.00000000       0.00000000
H        4.08100000       9.76600000       2.01800000       0.00000000       0.00000000       0.00000000
H        2.98400000       8.55700000       2.01800000       0.00000000       0.00000000       0.00000000
O       14.63000000       7.33000000       7.26100000       0.00000000       0.00000000       0.00000000
H       14.51800000       6.73200000       8.05400000       0.00000000       0.00000000       0.00000000
H       15.39900000       7.95100000       7.41700000       0.00000000       0.00000000       0.00000000
O        4.62000000      12.60000000      17.31000000       0.00000000       0.00000000       0.00000000
H        4.19900000      12.69000000      16.40800000       0.00000000       0.00000000       0.00000000
H        3.90500000      12.53000000      18.00600000       0.00000000       0.00000000       0.00000000
O       11.14000000      17.76000000       2.36000000       0.00000000       0.00000000       0.00000000
H       10.49200000      17.19800000       2.87500000       0.00000000       0.00000000       0.00000000
H       11.41700000      17.27600000       1.53100000       0.00000000       0.00000000       0.00000000
O        2.00000000       2.78000000      15.01000000       0.00000000       0.00000000       0.00000000
H        1.27000000       3.43900000      14.83200000       0.00000000       0.00000000       0.00000000
H        1.85800000       2.35900000      15.90500000       0.00000000       0.00000000       0.00000000
O       16.32000000      13.75000000       0.86000000       0.00000000       0.00000000       0.00000000
H       15.99200000      14.68600000       0.73100000       0.00000000       0.00000000       0.00000000
H       15.57800000      13.10800000       0.67000000       0.00000000       0.00000000       0.00000000
O        4.67000000      17.41000000       3.22000000       0.00000000       0.00000000       0.00000000
H        4.98200000      17.87100000       4.05000000       0.00000000       0.00000000       0.00000000
H        5.43700000      17.31100000       2.58500000       0.00000000       0.00000000       0.00000000
O       14.03000000       1.10000000       4.27000000       0.00000000       0.00000000       0.00000000
H       13.78000000       0.73200000       3.37400000       0.00000000       0.00000000       0.00000000
H       15.02100000       1.23100000       4.31100000       0.00000000       0.00000000       0.00000000
O        2.50000000      17.88000000      12.39000000       0.00000000       0.00000000       0.00000000
H        3.05800000      17.22300000      12.89800000       0.00000000       0.00000000       0.00000000
H        2.33000000      17.53000000      11.46900000       0.00000000       0.00000000       0.00000000
O        9.40000000      16.98000000       9.04000000       0.00000000       0.00000000       0.00000000
H       10.19800000      16.41500000       9.25200000       0.00000000       0.00000000       0.00000000
H        8.88700000      16.56300000       8.29000000       0.00000000       0.00000000       0.00000000
O        3.84000000       6.98900000       4.81000000       0.00000000       0.00000000       0.00000000
H        4.25000000       6.07800000       4.77900000       0.00000000       0.00000000       0.00000000
H        2.88000000       6.91400000       5.08000000       0.00000000       0.00000000       0.00000000
O       15.42000000       2.26000000      17.27000000       0.00000000       0.00000000       0.00000000
H       15.44900000       2.56000000      18.22300000       0.00000000       0.00000000       0.00000000
H       14.71700000       1.55800000      17.16200000       0.00000000       0.00000000       0.00000000
O        6.09000000       1.03000000       1.13000000       0.00000000       0.00000000       0.00000000
H        7.08300000       1.08000000       1.24000000       0.00000000       0.00000000       0.00000000
H        5.85900000       1.10000000       0.16000000       0.00000000       0.00000000       0.00000000
O        7.78000000       2.64000000      17.49000000       0.00000000       0.00000000       0.00000000
H        8.48200000       2.04700000      17.88400000       0.00000000       0.00000000       0.00000000
H        7.08400000       2.83800000      18.18000000       0.00000000       0.00000000       0.00000000
O        8.86000000      15.16000000      11.94000000       0.00000000       0.00000000       0.00000000
H        8.62900000      14.87200000      11.01100000       0.00000000       0.00000000       0.00000000
H        9.48000000      14.49100000      12.35200000       0.00000000       0.00000000       0.00000000
O       13.46000000       5.90000000      14.34000000       0.00000000       0.00000000       0.00000000
H       13.77900000       5.47900000      15.18900000       0.00000000       0.00000000       0.00000000
H       13.77800000       6.84700000      14.29800000       0.00000000       0.00000000       0.00000000
O        8.05000000      14.05000000       9.26000000       0.00000000       0.00000000       0.00000000
H        8.94700000      14.10000000       8.82100000       0.00000000       0.00000000       0.00000000
H        7.34000000      13.98000000       8.56000000       0.00000000       0.00000000       0.00000000
O        9.23000000       5.05000000       9.00000000       0.00000000       0.00000000       0.00000000
H        8.97000000       4.95100000       8.04000000       0.00000000       0.00000000       0.00000000
H        9.68700000       4.21600000       9.30900000       0.00000000       0.00000000       0.00000000
O        5.27000000       0.56000000       4.92000000       0.00000000       0.00000000       0.00000000
H        4.48800000       0.55800000       5.54300000       0.00000000       0.00000000       0.00000000
H        5.31200000       1.43700000       4.44000000       0.00000000       0.00000000       0.00000000
O       14.34000000      11.94000000       0.44000000       0.00000000       0.00000000       0.00000000
H       14.64900000      11.13900000       0.95200000       0.00000000       0.00000000       0.00000000
H       13.40400000      12.16800000       0.71000000       0.00000000       0.00000000       0.00000000
O        2.97000000       0.39000000       1.66000000       0.00000000       0.00000000       0.00000000
H        3.51000000       1.22700000       1.57100000       0.00000000       0.00000000       0.00000000
H        3.49300000      -0.29100000       2.17200000       0.00000000       0.00000000       0.00000000
O        9.44000000       2.42000000       4.83900000       0.00000000       0.00000000       0.00000000
H        8.90900000       2.74700000       4.05800000       0.00000000       0.00000000       0.00000000
H       10.41200000       2.41800000       4.60400000       0.00000000       0.00000000       0.00000000
O       10.79000000       6.79000000      14.65000000       0.00000000       0.00000000       0.00000000
H        9.98100000       6.20100000      14.66000000       0.00000000       0.00000000       0.00000000
H       11.59600000       6.24600000      14.41800000       0.00000000       0.00000000       0.00000000
O       12.26000000      15.70000000       7.93000000       0.00000000       0.00000000       0.00000000
H       12.47100000      16.42100000       7.27000000       0.00000000       0.00000000       0.00000000
H       12.94800000      15.70100000       8.65600000       0.00000000       0.00000000       0.00000000
O        4.61900000      11.46000000       7.42000000       0.00000000       0.00000000       0.00000000
H        3.87100000      11.27400000       8.05800000       0.00000000       0.00000000       0.00000000
H        4.31500000      11.27100000       6.48600000       0.00000000       0.00000000       0.00000000
O       12.73000000      17.97000000       5.94000000       0.00000000       0.00000000       0.00000000
H       13.15200000      18.61000000       5.29800000       0.00000000       0.00000000       0.00000000
H       12.16100000      18.47600000       6.58900000       0.00000000       0.00000000       0.00000000
O       10.25000000       5.43000000       0.28000000       0.00000000       0.00000000       0.00000000
H        9.88200000       6.22800000      -0.19800000       0.00000000       0.00000000       0.00000000
H       10.97900000       5.72000000       0.89900000       0.00000000       0.00000000       0.00000000
O        1.01000000       5.57000000      13.99000000       0.00000000       0.00000000       0.00000000
H        1.88600000       5.69100000      13.52300000       0.00000000       0.00000000       0.00000000
H        0.81100000       6.38100000      14.54000000       0.00000000       0.00000000       0.00000000
O        5.64000000       2.23100000      11.52900000       0.00000000       0.00000000       0.00000000
H        6.01600000       1.39400000      11.92700000       0.00000000       0.00000000       0.00000000
H        4.71800000       2.38400000      11.88500000       0.00000000       0.00000000       0.00000000
O        8.69000000       4.56000000       6.41000000       0.00000000       0.00000000       0.00000000
H        8.30000000       5.24100000       5.79000000       0.00000000       0.00000000       0.00000000
H        8.89000000       3.72200000       5.90200000       0.00000000       0.00000000       0.00000000
O        9.97000000       0.55000000       7.65000000       0.00000000       0.00000000       0.00000000
H        9.48200000       0.39400000       6.79100000       0.00000000       0.00000000       0.00000000
H        9.94200000      -0.28100000       8.20500000       0.00000000       0.00000000       0.00000000
O       14.33000000      11.68000000       8.63000000       0.00000000       0.00000000       0.00000000
H       13.70800000      10.89800000       8.59900000       0.00000000       0.00000000       0.00000000
H       14.55000000      11.96900000       7.69800000       0.00000000       0.00000000       0.00000000
O       14.70000000       5.92000000       9.90000000       0.00000000       0.00000000       0.00000000
H       14.31000000       5.00200000       9.96900000       0.00000000       0.00000000       0.00000000
H       15.39200000       6.04200000      10.61100000       0.00000000       0.00000000       0.00000000
O       18.53000000       8.28000000       3.78000000       0.00000000       0.00000000       0.00000000
H       19.02100000       7.67800000       4.41000000       0.00000000       0.00000000       0.00000000
H       18.18900000       7.74600000       3.00700000       0.00000000       0.00000000       0.00000000
O        4.91100000      13.87000000       1.73000000       0.00000000       0.00000000       0.00000000
H        4.04300000      13.70000000       2.19800000       0.00000000       0.00000000       0.00000000
H        4.73500000      14.09000000       0.77100000       0.00000000       0.00000000       0.00000000
O       16.65000000      12.74000000       6.60000000       0.00000000       0.00000000       0.00000000
H       17.64300000      12.82900000       6.67000000       0.00000000       0.00000000       0.00000000
H       16.22000000      13.61600000       6.81900000       0.00000000       0.00000000       0.00000000
O       14.02000000       5.91000000       0.86000000       0.00000000       0.00000000       0.00000000
H       13.31300000       5.56000000       1.47400000       0.00000000       0.00000000       0.00000000
H       14.80000000       5.28300000       0.85800000       0.00000000       0.00000000       0.00000000
O        4.90000000       2.65000000       3.13000000       0.00000000       0.00000000       0.00000000
H        5.51100000       2.02100000       2.64900000       0.00000000       0.00000000       0.00000000
H        5.14200000       3.59200000       2.89900000       0.00000000       0.00000000       0.00000000
O       17.54000000      12.26000000      15.84000000       0.00000000       0.00000000       0.00000000
H       18.45400000      11.86200000      15.75000000       0.00000000       0.00000000       0.00000000
H       17.61900000      13.21300000      16.13100000       0.00000000       0.00000000       0.00000000
O       10.69000000      13.52100000      13.42900000       0.00000000       0.00000000       0.00000000
H        9.83500000      13.23700000      13.86300000       0.00000000       0.00000000       0.00000000