180
Lattice="12.29793 0.0 0.0 0.0 12.29793 0.0 0.0 0.0 12.29793" Properties=species:S:1:pos:R:3:masses:R:1:momenta:R:3:id:I:1:type:I:1:travel:I:3:mol-id:I:1:initial_charges:R:1:mmcharges:R:1:bonds:S:1:angles:S:1 comment="LAMMPS data file via write_data, version 28 Feb 2019, timestep = 50000" pbc="T T T"
O        3.77109571       9.58061874       0.07270544      15.99940000      -0.00017038      -0.00057458      -0.00054585        1        2        0        1        1        1      -0.84760000      -0.84760000 _  _ 
H        3.37416263      10.47433016       0.28183643       1.00790000      -0.00003098      -0.00005906       0.00002592        2        1        0        1        1        1       0.42380000       0.42380000 _  _ 
H        3.08668668       9.00984455      11.91697954       1.00790000      -0.00001498      -0.00004076      -0.00002209        3        1        0        1        0        1       0.42380000       0.42380000 _  _ 
O        7.87783148       4.50222766       4.98736861      15.99940000       0.00000287       0.00073720       0.00031815        4        2        0        0        0        2      -0.84760000      -0.84760000 112(1),1(1) 112-1(1)
H        8.32250125       4.42009614       4.09534747       1.00790000       0.00023011      -0.00018832       0.00015428        5        1        0        0        0        2       0.42380000       0.42380000 _  _ 
H        7.81256439       5.46772534       5.23973413       1.00790000      -0.00022789       0.00012012      -0.00033278        6        1        0        0        0        2       0.42380000       0.42380000 _  _ 
O        7.99767310      10.20435883       5.84826682      15.99940000      -0.00003045      -0.00124021       0.00062458        7        2        0       -1        0        3      -0.84760000      -0.84760000 73(1),5(1) 73-5(1)
H        7.01376496      10.02879836       5.88257810       1.00790000      -0.00004498       0.00014921      -0.00001743        8        1        0       -1        0        3       0.42380000       0.42380000 4(1),8(1) 4-8(1)
H        8.23734428      10.89317097       6.53248051       1.00790000       0.00007868       0.00004702      -0.00011480        9        1        0       -1        0        3       0.42380000       0.42380000 _  _ 
O        1.18926863      11.20699708      10.36603959      15.99940000       0.00005388      -0.00008119       0.00133122       10        2        0       -1       -1        4      -0.84760000      -0.84760000 _  _ 
H        1.20703750      10.33172411       9.88270300       1.00790000       0.00009612       0.00005009      -0.00001346       11        1        0       -1       -1        4       0.42380000       0.42380000 _  _ 
H        1.70657966      11.12777253      11.21816983       1.00790000      -0.00006772      -0.00007164       0.00012093       12        1        0       -1       -1        4       0.42380000       0.42380000 _  _ 
O        0.33568104       4.82713478       1.23914586      15.99940000       0.00073584      -0.00054503      -0.00015900       13        2        1        0        0        5      -0.84760000      -0.84760000 10(1),11(1) 10-11(1)
H       11.92120704       4.35249986       0.72222628       1.00790000       0.00005045      -0.00008542       0.00003146       14        1        0        0        0        5       0.42380000       0.42380000 _  _ 
H        0.95535429       5.28977965       0.60513483       1.00790000       0.00002461      -0.00005897      -0.00004928       15        1        1        0        0        5       0.42380000       0.42380000 81(1),9(1) 81-9(1)
O        6.32606749       8.28588264      11.90650520      15.99940000      -0.00089286       0.00006206       0.00053513       16        2        1        0        0        6      -0.84760000      -0.84760000 20(1),13(1) 20-13(1)
H        6.42434123       7.58047466       0.31053353       1.00790000      -0.00001836       0.00000485       0.00002944       17        1        1        0        1        6       0.42380000       0.42380000 _  _ 
H        5.36005382       8.52423064      11.80643118       1.00790000      -0.00005512       0.00004664       0.00012756       18        1        1        0        0        6       0.42380000       0.42380000 _  _ 
O       11.79925179       3.60909411      11.07009831      15.99940000       0.00154796       0.00068144       0.00128728       19        2       -1        1       -1        7      -0.84760000      -0.84760000 2(1),17(1) 2-17(1)
H       10.90737950       4.02004654      11.25915030       1.00790000      -0.00001488      -0.00012292      -0.00009360       20        1       -1        1       -1        7       0.42380000       0.42380000 _  _ 
H       11.98915535       3.66119081      10.08966733       1.00790000       0.00022044      -0.00004285       0.00010061       21        1       -1        1       -1        7       0.42380000       0.42380000 _  _ 
O        8.10971425       0.36129385       4.02863726      15.99940000       0.00001162       0.00091467       0.00041504       22        2       -1        1        0        8      -0.84760000      -0.84760000 _  _ 
H        8.33665670       1.07169356       3.36232588       1.00790000      -0.00028620       0.00024878       0.00013235       23        1       -1        1        0        8       0.42380000       0.42380000 23(1),21(1) 23-21(1)
H        7.12482317       0.18884002       4.00965593       1.00790000       0.00004055      -0.00018858       0.00015119       24        1       -1        1        0        8       0.42380000       0.42380000 _  _ 
O       10.78379178       2.31513103       4.08775947      15.99940000      -0.00055665      -0.00037553      -0.00064309       25        2        0        1        0        9      -0.84760000      -0.84760000 _  _ 
H       10.17855529       2.43164838       4.87528357       1.00790000       0.00010227       0.00011420       0.00004585       26        1        0        1        0        9       0.42380000       0.42380000 111(1),24(1) 111-24(1)
H       10.39024127       2.77812368       3.29355608       1.00790000      -0.00008867      -0.00001461      -0.00000826       27        1        0        1        0        9       0.42380000       0.42380000 116(1),29(1) 116-29(1)
O        2.05482525       3.50145642       7.18338020      15.99940000      -0.00066741       0.00087343      -0.00078361       28        2        0        0        0       10      -0.84760000      -0.84760000 _  _ 
H        2.87026251       3.20833749       7.68261657       1.00790000       0.00004365      -0.00010838      -0.00028619       29        1        0        0        0       10       0.42380000       0.42380000 _  _ 
H        1.62079395       4.25978493       7.66984139       1.00790000       0.00009083      -0.00004812       0.00022705       30        1        0        0        0       10       0.42380000       0.42380000 _  _ 
O        5.44542884      10.33151190       6.93077744      15.99940000      -0.00009935      -0.00110442       0.00007878       31        2       -1       -1       -1       11      -0.84760000      -0.84760000 _  _ 
H        5.38099978      11.31612914       7.09325718       1.00790000       0.00002823      -0.00008954       0.00013847       32        1       -1       -1       -1       11       0.42380000       0.42380000 48(1),30(1) 48-30(1)
H        4.53905722       9.96967091       6.71266725       1.00790000      -0.00002202      -0.00001167      -0.00002575       33        1       -1       -1       -1       11       0.42380000       0.42380000 118(1),27(1) 118-27(1)
O       10.37494444      10.55906683       3.99971842      15.99940000      -0.00080506       0.00069213       0.00048340       34        2        0        0        0       12      -0.84760000      -0.84760000 _  _ 
H       10.54662623      11.36906366       3.43894103       1.00790000       0.00008940       0.00008965       0.00013971       35        1        0        0        0       12       0.42380000       0.42380000 _  _ 
H        9.60964410      10.73792150       4.61807321       1.00790000       0.00007676       0.00014365       0.00015847       36        1        0        0        0       12       0.42380000       0.42380000 33(1),34(1) 33-34(1)
O        3.45542422       4.80504443      12.13360939      15.99940000      -0.00003211       0.00013355      -0.00105248       37        2        0        0        0       13      -0.84760000      -0.84760000 _  _ 
H        2.96247707       5.47025736      11.57280983       1.00790000      -0.00000731       0.00002764      -0.00003858       38        1        0        0        0       13       0.42380000       0.42380000 _  _ 
H        4.17811553       4.38001219      11.58853487       1.00790000      -0.00011609      -0.00009465      -0.00013783       39        1        0        0        0       13       0.42380000       0.42380000 _  _ 
O        2.06343182       2.06671005      11.80625171      15.99940000       0.00038825       0.00065175      -0.00102794       40        2        1        1       -1       14      -0.84760000      -0.84760000 40(1),38(1) 40-38(1)
H        2.56937387       2.67325573       0.12166698       1.00790000      -0.00014957       0.00003205       0.00008822       41        1        1        1        0       14       0.42380000       0.42380000 _  _ 
H        1.19859164       2.49816855      11.54948534       1.00790000       0.00004720      -0.00000284      -0.00021595       42        1        1        1       -1       14       0.42380000       0.42380000 _  _ 
O        5.26232855       0.96523814       7.43291844      15.99940000      -0.00039453       0.00026310      -0.00010694       43        2       -1        1       -1       15      -0.84760000      -0.84760000 19(1),16(1) 19-16(1)
H        5.37059395       1.53858114       6.62076824       1.00790000       0.00011857       0.00000666       0.00000532       44        1       -1        1       -1       15       0.42380000       0.42380000 36(1),37(1) 36-37(1)
H        4.71399108       1.45133794       8.11340060       1.00790000      -0.00010031       0.00004659      -0.00008910       45        1       -1        1       -1       15       0.42380000       0.42380000 46(1),45(1) 46-45(1)
O       10.44874277       6.96023807      11.03894907      15.99940000      -0.00090016      -0.00020940       0.00064691       46        2        0        0       -1       16      -0.84760000      -0.84760000 _  _ 
H        9.92622880       6.11398027      10.93488638       1.00790000      -0.00005048      -0.00001768       0.00004625       47        1        0        0       -1       16       0.42380000       0.42380000 _  _ 
H       11.41301803       6.74052273      11.18693851       1.00790000      -0.00005401      -0.00000499       0.00003531       48        1        0        0       -1       16       0.42380000       0.42380000 _  _ 
O        1.82677678       5.48198818       9.22412445      15.99940000       0.00049382      -0.00025120      -0.00082608       49        2        0        0        0       17      -0.84760000      -0.84760000 _  _ 
H        2.68055312       5.84955901       8.85527762       1.00790000      -0.00005209       0.00022870      -0.00000233       50        1        0        0        0       17       0.42380000       0.42380000 _  _ 
H        1.49198487       6.08198243       9.95075603       1.00790000      -0.00017312      -0.00012051      -0.00005918       51        1        0        0        0       17       0.42380000       0.42380000 _  _ 
O        7.10034387       1.81846255      11.72289093      15.99940000       0.00051074      -0.00048112       0.00007651       52        2        0        0       -1       18      -0.84760000      -0.84760000 50(1),49(1) 50-49(1)
H        6.93545824       0.86629072      11.98035267       1.00790000      -0.00010163       0.00006766       0.00027979       53        1        0        0       -1       18       0.42380000       0.42380000 _  _ 
H        8.02032245       2.08667592      12.00895386       1.00790000       0.00013702      -0.00013001      -0.00023265       54        1        0        0       -1       18       0.42380000       0.42380000 _  _ 
O        1.12242729       7.73950730       2.27022142      15.99940000       0.00069604      -0.00080928       0.00069250       55        2        0        0        0       19      -0.84760000      -0.84760000 _  _ 
H        1.26403781       8.69804377       2.51784448       1.00790000      -0.00025174      -0.00002584       0.00012560       56        1        0        0        0       19       0.42380000       0.42380000 _  _ 
H        1.37586057       7.60177625       1.31267328       1.00790000      -0.00014955       0.00016393      -0.00003846       57        1        0        0        0       19       0.42380000       0.42380000 53(1),55(1) 53-55(1)
O        9.02842702       4.48500008      11.01983116      15.99940000      -0.00075489       0.00106413      -0.00005087       58        2        1        1       -1       20      -0.84760000      -0.84760000 61(1),52(1) 61-52(1)
H        8.52771039       4.49605030      11.88537744       1.00790000       0.00005129       0.00005481       0.00005367       59        1        1        1       -1       20       0.42380000       0.42380000 _  _ 
H        8.39725765       4.67275410      10.26722278       1.00790000      -0.00010422       0.00023767       0.00008703       60        1        1        1       -1       20       0.42380000       0.42380000 _  _ 
O        8.86251657       4.41948473       7.75543879      15.99940000       0.00057772      -0.00016680      -0.00077718       61        2        0        1       -1       21      -0.84760000      -0.84760000 _  _ 
H        8.78509011       4.14419247       6.79719254       1.00790000      -0.00010795      -0.00003243      -0.00003062       62        1        0        1       -1       21       0.42380000       0.42380000 _  _ 
H        7.96354754       4.69388863       8.09706487       1.00790000       0.00002532      -0.00033691       0.00018118       63        1        0        1       -1       21       0.42380000       0.42380000 _  _ 
O        0.31991988       0.62021705       8.15453662      15.99940000      -0.00000248       0.00026239      -0.00008863       64        2        1        1        0       22      -0.84760000      -0.84760000 _  _ 
H        0.35732285      12.27056437       8.91562569       1.00790000       0.00001412      -0.00005923      -0.00007045       65        1        1        0        0       22       0.42380000       0.42380000 66(1),68(1) 66-68(1)
H        0.01815720       1.51243103       8.49056618       1.00790000       0.00006836       0.00000021       0.00009984       66        1        1        1        0       22       0.42380000       0.42380000 _  _ 
O        3.33441343       1.51480818       9.20528246      15.99940000       0.00014377      -0.00076392       0.00072331       67        2        0        0        1       23      -0.84760000      -0.84760000 _  _ 
H        2.79195569       1.80593602       9.99346405       1.00790000      -0.00015064       0.00026253      -0.00017600       68        1        0        0        1       23       0.42380000       0.42380000 0(1),63(1) 0-63(1)
H        2.76552280       0.96451190       8.59410021       1.00790000       0.00007010      -0.00010302       0.00003855       69        1        0        0        1       23       0.42380000       0.42380000 _  _ 
Cl       1.47732733       7.31690859      11.52774393      35.45300001       0.00069690       0.00164601       0.00024612       70        4        0        0       -1       24      -1.00000000      -1.00000000 _  _ 
O        6.63611936       6.46797402       1.61225567      15.99940000      -0.00027249       0.00080879      -0.00008013       71        2        1        0        1       25      -0.84760000      -0.84760000 69(1),62(1) 69-62(1)
H        6.28869280       6.62665815       2.53646865       1.00790000       0.00008052      -0.00008164       0.00005505       72        1        1        0        1       25       0.42380000       0.42380000 _  _ 
H        7.48475474       5.94103331       1.66108732       1.00790000       0.00017150       0.00033482      -0.00015022       73        1        1        0        1       25       0.42380000       0.42380000 74(1),80(1) 74-80(1)
Cl       8.93903767       3.76142865       1.98530615      35.45300001       0.00165017      -0.00100929       0.00037006       74        4        1       -1        1       26      -1.00000000      -1.00000000 _  _ 
O        6.84966453       5.43269877       9.25952447      15.99940000       0.00024095       0.00063866       0.00004685       75        2        1        0       -1       27      -0.84760000      -0.84760000 _  _ 
H        6.07488755       4.80906980       9.36350386       1.00790000       0.00000349       0.00005649       0.00001297       76        1        1        0       -1       27       0.42380000       0.42380000 76(1),71(1) 76-71(1)
H        6.56134856       6.36310010       9.48587674       1.00790000       0.00001805       0.00005796      -0.00006592       77        1        1        0       -1       27       0.42380000       0.42380000 _  _ 
Cl       2.42344767       8.96407996       6.70728863      35.45300001      -0.00044575       0.00099682       0.00096477       78        4        0        0        0       28      -1.00000000      -1.00000000 _  _ 
O        2.51782452      11.73667908       0.44343173      15.99940000       0.00114150       0.00073266      -0.00012771       79        2        0       -1        0       29      -0.84760000      -0.84760000 _  _ 
H        2.31625178       0.32032042       0.01655061       1.00790000      -0.00003400       0.00004700       0.00004295       80        1        0        0        0       29       0.42380000       0.42380000 78(1),77(1) 78-77(1)
H        2.28322168      11.77537909       1.41482990       1.00790000      -0.00023019      -0.00013733      -0.00007326       81        1        0       -1        0       29       0.42380000       0.42380000 _  _ 
O        9.31408257       7.34297258       7.92458317      15.99940000      -0.00108811       0.00017366      -0.00056853       82        2        0        1        0       30      -0.84760000      -0.84760000 _  _ 
H        8.37069696       7.66841604       7.98911066       1.00790000      -0.00000375       0.00018622       0.00003356       83        1        0        1        0       30       0.42380000       0.42380000 _  _ 
H        9.33186622       6.34894788       8.03249749       1.00790000      -0.00023948       0.00001408       0.00002413       84        1        0        1        0       30       0.42380000       0.42380000 _  _ 
O       10.61868170       0.12837203       1.73455180      15.99940000       0.00027393      -0.00013395      -0.00058211       85        2       -1        0        0       31      -0.84760000      -0.84760000 82(1),83(1) 82-83(1)
H       10.37277285       0.27497596       0.77638505       1.00790000      -0.00002079       0.00019979       0.00000522       86        1       -1        0        0       31       0.42380000       0.42380000 _  _ 
H       10.61670402       1.00433926       2.21696758       1.00790000       0.00010534      -0.00010438       0.00013735       87        1       -1        0        0       31       0.42380000       0.42380000 87(1),85(1) 87-85(1)
O        5.74567447       2.95394030       2.68473514      15.99940000      -0.00027024      -0.00162880      -0.00060083       88        2        0        1        1       32      -0.84760000      -0.84760000 _  _ 
H        6.59142360       3.09316289       2.16958639       1.00790000      -0.00010361      -0.00013145      -0.00018911       89        1        0        1        1       32       0.42380000       0.42380000 _  _ 
H        5.62570872       1.97879526       2.87116197       1.00790000      -0.00012693      -0.00012161      -0.00020561       90        1        0        1        1       32       0.42380000       0.42380000 88(1),93(1) 88-93(1)
O        4.70389217       9.94117838       2.46778342      15.99940000      -0.00026914      -0.00013309       0.00116750       91        2        0       -1        1       33      -0.84760000      -0.84760000 94(1),91(1) 94-91(1)
H        5.69791071       9.84669792       2.52256882       1.00790000      -0.00001383       0.00001346       0.00005400       92        1        0       -1        1       33       0.42380000       0.42380000 _  _ 
H        4.38898495       9.63497759       1.56940723       1.00790000      -0.00001717       0.00007851       0.00004426       93        1        0       -1        1       33       0.42380000       0.42380000 _  _ 
O        0.50126872       8.59645703       9.08098174      15.99940000       0.00021681      -0.00092339      -0.00044811       94        2        1        1        0       34      -0.84760000      -0.84760000 _  _ 
H        0.94286555       8.11112969       9.83560861       1.00790000      -0.00001403       0.00003455       0.00004730       95        1        1        1        0       34       0.42380000       0.42380000 _  _ 
H        1.12800794       8.64414276       8.30320578       1.00790000       0.00009566      -0.00002489       0.00004002       96        1        1        1        0       34       0.42380000       0.42380000 _  _ 
O        9.04134232       8.04545099       4.31796343      15.99940000       0.00064554      -0.00068619       0.00014240       97        2        0        0        0       35      -0.84760000      -0.84760000 92(1),99(1) 92-99(1)
H        8.63764989       7.53679537       5.07842961       1.00790000      -0.00000611      -0.00009813      -0.00005323       98        1        0        0        0       35       0.42380000       0.42380000 _  _ 
H        8.85956079       9.02173620       4.43618193       1.00790000      -0.00030322      -0.00008952      -0.00013850       99        1        0        0        0       35       0.42380000       0.42380000 106(1),97(1) 106-97(1)
O        6.89465249       6.91276728       5.80299036      15.99940000      -0.00046683      -0.00034696       0.00136450      100        2        0       -1        1       36      -0.84760000      -0.84760000 _  _ 
H        6.49859770       7.19971662       6.67525274       1.00790000      -0.00017187       0.00007386      -0.00001019      101        1        0       -1        1       36       0.42380000       0.42380000 95(1),119(1) 95-119(1)
H        6.17312840       6.85209604       5.11321972       1.00790000       0.00012393       0.00014319      -0.00008681      102        1        0       -1        1       36       0.42380000       0.42380000 _  _ 
O        4.12625410       6.61964752       8.18930422      15.99940000      -0.00070693      -0.00074544       0.00021672      103        2       -1        0        0       37      -0.84760000      -0.84760000 _  _ 
H        3.54127561       7.43007557       8.15422071       1.00790000       0.00028812       0.00017859      -0.00026605      104        1       -1        0        0       37       0.42380000       0.42380000 102(1),107(1) 102-107(1)
H        5.05640819       6.89050912       8.43746911       1.00790000       0.00008619      -0.00033570      -0.00016352      105        1       -1        0        0       37       0.42380000       0.42380000 105(1),101(1) 105-101(1)
O        4.91221672       7.26439486       3.93470859      15.99940000      -0.00038940      -0.00021763      -0.00028733      106        2       -1       -1        0       38      -0.84760000      -0.84760000 _  _ 
H        4.23315458       6.79426480       4.49855850       1.00790000      -0.00013655      -0.00019756      -0.00031335      107        1       -1       -1        0       38       0.42380000       0.42380000 _  _ 
H        4.61688152       8.20601210       3.77300124       1.00790000      -0.00013382      -0.00004815      -0.00001858      108        1       -1       -1        0       38       0.42380000       0.42380000 _  _ 
O        2.89067210       5.99292281       5.21594944      15.99940000      -0.00047068       0.00103858       0.00180802      109        2        1        0        0       39      -0.84760000      -0.84760000 _  _ 
H        2.67960678       6.80223963       5.76413348       1.00790000      -0.00016288       0.00013231      -0.00003636      110        1        1        0        0       39       0.42380000       0.42380000 _  _ 
H        3.04708783       5.21211701       5.82085804       1.00790000       0.00000402       0.00018131       0.00025475      111        1        1        0        0       39       0.42380000       0.42380000 _  _ 
O       11.43079287       3.03854935       8.23797585      15.99940000       0.00046364       0.00038163       0.00071749      112        2       -1        0        0       40      -0.84760000      -0.84760000 _  _ 
H       11.39075522       2.50100832       7.39567037       1.00790000      -0.00011616       0.00003814       0.00004279      113        1       -1        0        0       40       0.42380000       0.42380000 _  _ 
H       10.61972555       3.62013189       8.30108099       1.00790000       0.00000294      -0.00003231       0.00023170      114        1       -1        0        0       40       0.42380000       0.42380000 _  _ 
O       10.24366673      10.74078108       8.13237198      15.99940000      -0.00109722       0.00049750       0.00039946      115        2       -1        0        0       41      -0.84760000      -0.84760000 113(1),115(1) 113-115(1)
H       10.60931749      11.29359409       7.38357406       1.00790000      -0.00001133       0.00004160       0.00006135      116        1       -1        0        0       41       0.42380000       0.42380000 _  _ 
H        9.46650889      11.21393602       8.54732396       1.00790000      -0.00015596      -0.00001401      -0.00008474      117        1       -1        0        0       41       0.42380000       0.42380000 _  _ 
O        1.51495777      11.77178452       5.91840589      15.99940000       0.00103640       0.00011853      -0.00077109      118        2        0        0       -1       42      -0.84760000      -0.84760000 144(1),108(1) 144-108(1)
H        1.72094204      10.80912420       6.09428611       1.00790000      -0.00010033      -0.00005353      -0.00018266      119        1        0        0       -1       42       0.42380000       0.42380000 _  _ 
H        1.04745053      12.16288373       6.71119306       1.00790000       0.00021621       0.00000243       0.00004292      120        1        0        0       -1       42       0.42380000       0.42380000 _  _ 
Na      10.49716783       8.76420627       9.31749076      22.98970001       0.00036994       0.00033040      -0.00175959      121        3        0        0        0       43       1.00000000       1.00000000 122(1),121(1) 122-121(1)
O        7.83030529       1.08638485       8.75001095      15.99940000       0.00106799      -0.00064881      -0.00009131      122        2        0        1        0       44      -0.84760000      -0.84760000 _  _ 
H        7.83500146       1.57611013       9.62188544       1.00790000       0.00011296       0.00003273      -0.00004709      123        1        0        1        0       44       0.42380000       0.42380000 _  _ 
H        6.89408253       1.03318176       8.40264071       1.00790000       0.00005414      -0.00003597       0.00002853      124        1        0        1        0       44       0.42380000       0.42380000 _  _ 
O        8.36927506       9.38882621      10.38994781      15.99940000      -0.00107866      -0.00047452      -0.00096926      125        2        0        0        0       45      -0.84760000      -0.84760000 41(1),157(1) 41-157(1)
H        7.72794343       8.97473305      11.03590230       1.00790000       0.00005355      -0.00008407       0.00002552      126        1        0        0        0       45       0.42380000       0.42380000 130(1),127(1) 130-127(1)
H        9.05551443       9.91476018      10.89247508       1.00790000       0.00010071      -0.00017561      -0.00013821      127        1        0        0        0       45       0.42380000       0.42380000 _  _ 
Na      11.40534800       8.51241076       3.16416885      22.98970001       0.00014012       0.00006276      -0.00159876      128        3       -1        0        1       46       1.00000000       1.00000000 _  _ 
O        9.31442233       7.82024830       1.13300194      15.99940000      -0.00006492       0.00018392       0.00016015      129        2        0       -1        1       47      -0.84760000      -0.84760000 _  _ 
H        8.41408987       7.50863122       0.82914871       1.00790000       0.00004838      -0.00002375      -0.00011044      130        1        0       -1        1       47       0.42380000       0.42380000 126(1),123(1) 126-123(1)
H        9.95799836       7.77553606       0.36888699       1.00790000       0.00014105      -0.00012516       0.00014055      131        1        0       -1        1       47       0.42380000       0.42380000 _  _ 
O        2.44957274       1.06866960       4.12555381      15.99940000       0.00023437      -0.00065530      -0.00053898      132        2        0        1        0       48      -0.84760000      -0.84760000 _  _ 
H        2.15211836       0.57143852       4.94061348       1.00790000       0.00006965       0.00005835       0.00004775      133        1        0        1        0       48       0.42380000       0.42380000 133(1),134(1) 133-134(1)
H        2.04522701       1.98327936       4.12700212       1.00790000       0.00001919      -0.00003918      -0.00011572      134        1        0        1        0       48       0.42380000       0.42380000 _  _ 